version 3
run General-0-20230512-16:11:03-185093
attr configname General
attr datetime 20230512-16:11:03
attr datetimef 20230512-161103
attr experiment General
attr inifile omnetpp.ini
attr iterationvars ""
attr iterationvarsd ""
attr iterationvarsf ""
attr measurement ""
attr network Network
attr processid 185093
attr repetition 0
attr replication #0
attr resultdir results
attr runnumber 0
attr seedset 0
config network Network
config sim-time-limit 200s
config Network.nodeTx.gen.generationInterval exponential(0.1)
config Network.nodeTx.gen.packetByteSize 12500
config Network.nodeTx.transTx.bufferSize 200000
config Network.queue.bufferSize 200
config Network.nodeRx.transRx.bufferSize 200

vector 0 Network.nodeTx.gen packetGen ETV
vector 1 Network.nodeTx.transTx bufferSize ETV
vector 2 Network.queue bufferSize ETV
vector 3 Network.nodeRx.transRx bufferSize ETV
vector 4 Network.nodeRx.sink Delay ETV
vector 5 Network.nodeRx.sink PacketUsed ETV
vector 6 Network.queue1 bufferSize ETV
0	1	0.079587450457	1
0	4	0.169443489305	1
0	14	0.29503656511	1
0	24	0.480996986317	1
0	29	0.573319299464	1
0	44	0.768473833052	1
0	49	0.84719394705	1
0	60	1.03509035247	1
0	67	1.090195201137	1
0	72	1.187895843776	1
0	80	1.291711773842	1
0	90	1.340224590214	1
0	92	1.397776509902	1
0	94	1.433092423816	1
0	110	1.65544486602	1
0	112	1.661283332929	1
0	130	1.992774560922	1
0	133	2.024610175006	1
0	141	2.072970385501	1
0	148	2.137915020326	1
0	160	2.294804632088	1
0	166	2.46202575212	1
0	174	2.537293163451	1
0	180	2.602681420173	1
0	188	2.686624705463	1
0	194	2.736511906365	1
0	210	2.99633731495	1
0	220	3.177174241377	1
0	223	3.184542776924	1
0	227	3.225700576548	1
0	229	3.23481667916	1
0	236	3.339277929991	1
0	238	3.341320488831	1
0	248	3.387245302557	1
0	256	3.565994068901	1
0	278	3.881011061769	1
0	284	4.031589487633	1
0	286	4.046712572999	1
0	302	4.250743998793	1
0	314	4.454833220384	1
0	332	4.839355407298	1
0	337	4.903526324566	1
0	346	5.064050280272	1
0	356	5.225450487761	1
0	363	5.287343433724	1
0	368	5.360839875843	1
0	380	5.512493473242	1
0	390	5.626087367413	1
0	393	5.638674808357	1
0	402	5.766197578579	1
0	408	5.868340766014	1
0	416	5.955572885518	1
0	418	5.971045853568	1
0	428	6.048129319415	1
0	446	6.337571367214	1
0	454	6.479707835223	1
0	461	6.553490564399	1
0	463	6.564685180462	1
0	468	6.618241752485	1
0	480	6.682411222688	1
0	482	6.713139257903	1
0	484	6.733759586106	1
0	496	6.882585068681	1
0	502	7.016114087143	1
0	504	7.077022329461	1
0	512	7.101427178535	1
0	518	7.185460649096	1
0	520	7.199988451825	1
0	522	7.201885308745	1
0	524	7.241062389813	1
0	536	7.33720048372	1
0	538	7.353414132665	1
0	544	7.448113800382	1
0	546	7.473257993589	1
0	554	7.569212791326	1
0	560	7.618068496257	1
0	578	7.905859998385	1
0	594	8.138751335806	1
0	600	8.253265231276	1
0	608	8.313039838958	1
0	610	8.357591688463	1
0	616	8.452541146813	1
0	624	8.509994387487	1
0	640	8.742629493656	1
0	646	8.862240273602	1
0	648	8.87269639618	1
0	650	8.878907925227	1
0	672	9.228929293672	1
0	684	9.338820540427	1
0	690	9.444703953576	1
0	698	9.555763698145	1
0	700	9.574506304747	1
0	706	9.598126975355	1
0	708	9.642467378217	1
0	710	9.65627024706	1
0	722	9.795174516039	1
0	724	9.833070712467	1
0	732	9.926676868444	1
0	734	9.971887074466	1
0	744	10.011198330196	1
0	752	10.095641109549	1
0	754	10.09955942519	1
0	756	10.157291856271	1
0	762	10.257878956788	1
0	794	10.703328641406	1
0	810	11.022623305611	1
0	812	11.033386816427	1
0	820	11.139169457762	1
0	822	11.16259960964	1
0	828	11.263401534182	1
0	840	11.280992888725	1
0	866	11.817002923749	1
0	874	11.922877195258	1
0	884	12.010068780621	1
0	886	12.039276833948	1
0	894	12.092783301656	1
0	896	12.155577459755	1
0	902	12.219955559915	1
0	904	12.247983260763	1
0	912	12.34566966817	1
0	914	12.362982413785	1
0	920	12.404232536777	1
0	922	12.415928077756	1
0	930	12.528244907909	1
0	936	12.635052127624	1
0	938	12.673207711961	1
0	950	12.688078938886	1
0	956	12.838742472213	1
0	958	12.860630531864	1
0	976	13.159349521049	1
0	982	13.205350916823	1
0	994	13.313977854911	1
0	1006	13.486011020683	1
0	1008	13.487377478526	1
0	1010	13.497591966678	1
0	1016	13.595102160094	1
0	1024	13.777084052022	1
0	1036	13.889065488597	1
0	1038	13.899168966128	1
0	1058	14.256527803362	1
0	1080	14.63143094932	1
0	1096	14.841963079399	1
0	1104	14.905196739039	1
0	1106	14.976455098372	1
0	1132	15.352647826822	1
0	1134	15.358380519464	1
0	1140	15.451228369154	1
0	1148	15.511223057818	1
0	1154	15.645647585033	1
0	1156	15.647666597848	1
0	1158	15.651664227754	1
0	1166	15.709952066641	1
0	1168	15.743193090737	1
0	1194	16.132350103022	1
0	1196	16.145155779553	1
0	1202	16.189697725745	1
0	1204	16.224815334683	1
0	1212	16.290379963119	1
0	1214	16.303018826762	1
0	1220	16.419706179417	1
0	1222	16.457976274303	1
0	1234	16.670399994003	1
0	1246	16.723888431579	1
0	1258	16.974279609888	1
0	1264	16.980909350036	1
0	1266	17.005348894844	1
0	1274	17.123267847551	1
0	1280	17.206552199158	1
0	1292	17.290161952355	1
0	1304	17.490486004606	1
0	1306	17.521327488616	1
0	1312	17.592452282338	1
0	1314	17.666528177383	1
0	1332	17.915086413081	1
0	1334	17.924951443923	1
0	1350	18.178981894719	1
0	1356	18.264771458826	1
0	1358	18.27344850706	1
0	1376	18.538374099928	1
0	1378	18.570908141481	1
0	1384	18.609264162891	1
0	1386	18.610204237957	1
0	1398	18.720288828966	1
0	1410	18.905021594066	1
0	1412	18.919154665422	1
0	1418	19.02333273084	1
0	1426	19.149326111851	1
0	1442	19.333454359	1
0	1444	19.367619775703	1
0	1450	19.398371548079	1
0	1452	19.418606591936	1
0	1454	19.469326604262	1
0	1462	19.557639508458	1
0	1468	19.638119248438	1
0	1470	19.640150494318	1
0	1472	19.658175719516	1
0	1484	19.834749826757	1
0	1492	19.880922916361	1
0	1494	19.88139357041	1
0	1496	19.897227721033	1
0	1506	20.01049113523	1
0	1514	20.094799438445	1
0	1516	20.12627160453	1
0	1522	20.247922469874	1
0	1534	20.380798257249	1
0	1536	20.414832931073	1
0	1558	20.742347248844	1
0	1564	20.799137664192	1
0	1566	20.827739761443	1
0	1574	20.968842202372	1
0	1580	21.054681499155	1
0	1588	21.105115879814	1
0	1594	21.194774966893	1
0	1610	21.421148324479	1
0	1618	21.506070405635	1
0	1624	21.607936278637	1
0	1626	21.633178277926	1
0	1638	21.855328967773	1
0	1660	22.160557133461	1
0	1666	22.274517929814	1
0	1674	22.333780332559	1
0	1680	22.393418271992	1
0	1692	22.580764259978	1
0	1714	22.965064918302	1
0	1726	23.085288775027	1
0	1728	23.097641439763	1
0	1730	23.13294345309	1
0	1736	23.278625308946	1
0	1752	23.446717529401	1
0	1760	23.499789779063	1
0	1762	23.550291653838	1
0	1768	23.662819855522	1
0	1780	23.875769795129	1
0	1788	23.904510842736	1
0	1798	23.991564425369	1
0	1800	24.02913830961	1
0	1812	24.242621354608	1
0	1830	24.579058399913	1
0	1846	24.696996693277	1
0	1852	24.785782834321	1
0	1860	24.914973761201	1
0	1866	25.022757249615	1
0	1874	25.092337195705	1
0	1876	25.168523972835	1
0	1900	25.481070808601	1
0	1903	25.507276532769	1
0	1908	25.610556233834	1
0	1910	25.66078731366	1
0	1918	25.715926912673	1
0	1924	25.812372269222	1
0	1936	25.905612557263	1
0	1938	25.970023028095	1
0	1940	25.97196100623	1
0	1946	26.035473777793	1
0	1948	26.07136649938	1
0	1960	26.197270851106	1
0	1968	26.305202870972	1
0	1970	26.33916934423	1
0	1972	26.3734293067	1
0	1978	26.421792875359	1
0	1986	26.518030380936	1
0	1996	26.65632830159	1
0	2004	26.712324408597	1
0	2016	26.923069169092	1
0	2018	26.937626566937	1
0	2020	26.948481276786	1
0	2026	26.983903690011	1
0	2028	26.993595965469	1
0	2030	27.077984812728	1
0	2038	27.121687614105	1
0	2044	27.211060521936	1
0	2056	27.291315720512	1
0	2058	27.376723694076	1
0	2060	27.380144035912	1
0	2072	27.48604497445	1
0	2088	27.833298522378	1
0	2100	27.938883483244	1
0	2102	27.977596492459	1
0	2108	28.034057542571	1
0	2110	28.059065692069	1
0	2128	28.285929091338	1
0	2130	28.301158453863	1
0	2132	28.346975742259	1
0	2134	28.357207803744	1
0	2140	28.414453958887	1
0	2166	28.828234934938	1
0	2178	29.050726400661	1
0	2182	29.080882991983	1
0	2192	29.244972749776	1
0	2204	29.321980435731	1
0	2210	29.443682385265	1
0	2218	29.503089735097	1
0	2220	29.51365099946	1
0	2222	29.52413918302	1
0	2234	29.776067396028	1
0	2240	29.819501961622	1
0	2252	29.944762714113	1
0	2258	30.008108975885	1
0	2300	30.684648027879	1
0	2306	30.868621306387	1
0	2314	30.884808315058	1
0	2326	31.119826044033	1
0	2342	31.322416925743	1
0	2345	31.326245217031	1
0	2347	31.343977774546	1
0	2351	31.414969567268	1
0	2358	31.51056620966	1
0	2364	31.528820069848	1
0	2366	31.542038440809	1
0	2374	31.69302078637	1
0	2386	31.881413675029	1
0	2402	32.081612324582	1
0	2412	32.246284234715	1
0	2416	32.299284522529	1
0	2422	32.383472618702	1
0	2424	32.398551719721	1
0	2430	32.45083872273	1
0	2432	32.454217401285	1
0	2434	32.461384939716	1
0	2460	32.866369623596	1
0	2468	32.985913480224	1
0	2474	33.032640736865	1
0	2478	33.09307064405	1
0	2484	33.147556356864	1
0	2490	33.275589777245	1
0	2498	33.280781032463	1
0	2510	33.482058306084	1
0	2516	33.527549490563	1
0	2534	33.898545549753	1
0	2536	33.900222326352	1
0	2552	34.093880050101	1
0	2554	34.120112981018	1
0	2556	34.12129130421	1
0	2566	34.266070712409	1
0	2570	34.310695994461	1
0	2586	34.599157169671	1
0	2602	34.730087006073	1
0	2610	34.868716141275	1
0	2615	34.887545638797	1
0	2617	34.929006893063	1
0	2624	35.002620003062	1
0	2630	35.069866054745	1
0	2632	35.075453060034	1
0	2636	35.116850952301	1
0	2638	35.139164873111	1
0	2640	35.158947823857	1
0	2642	35.160817370899	1
0	2648	35.179569266019	1
0	2660	35.33741053823	1
0	2666	35.399670272628	1
0	2668	35.425020843142	1
0	2680	35.632623949186	1
0	2686	35.674989659322	1
0	2704	35.963444088163	1
0	2720	36.226665974418	1
0	2728	36.32037984619	1
0	2734	36.442259526524	1
0	2742	36.533055929256	1
0	2744	36.536291609721	1
0	2760	36.689374732348	1
0	2762	36.707370466503	1
0	2768	36.776690443457	1
0	2774	36.873838659266	1
0	2776	36.879006949846	1
0	2780	36.965099313514	1
0	2792	37.085196404168	1
0	2794	37.112363211202	1
0	2824	37.600276500001	1
0	2840	37.872411325592	1
0	2848	37.903508106089	1
0	2854	37.998691076843	1
0	2862	38.112350726369	1
0	2868	38.189058691826	1
0	2880	38.388775888575	1
0	2886	38.477913746266	1
0	2898	38.616881452644	1
0	2906	38.74785998978	1
0	2922	39.081653423165	1
0	2925	39.119042072755	1
0	2930	39.199840078095	1
0	2932	39.250626590364	1
0	2934	39.274501877649	1
0	2946	39.298054334991	1
0	2948	39.323214196302	1
0	2950	39.34381740115	1
0	2952	39.36850332803	1
0	2968	39.65741088722	1
0	2976	39.741708764761	1
0	2982	39.876243508084	1
0	2994	39.936411406736	1
0	3000	40.0038358637	1
0	3018	40.355283731754	1
0	3020	40.381085008148	1
0	3032	40.495198798434	1
0	3034	40.524549563626	1
0	3036	40.533464992626	1
0	3038	40.539443088918	1
0	3040	40.54525032513	1
0	3050	40.602240081661	1
0	3052	40.66915145403	1
0	3060	40.706518433469	1
0	3072	40.919385442922	1
0	3078	41.038571253287	1
0	3104	41.41324071467	1
0	3106	41.460682343703	1
0	3114	41.55682630086	1
0	3116	41.576623074393	1
0	3126	41.654820646481	1
0	3128	41.657319481812	1
0	3148	41.8501554955	1
0	3150	41.857117262607	1
0	3167	41.993310435038	1
0	3183	42.107064285592	1
0	3185	42.172187358784	1
0	3194	42.232645480618	1
0	3204	42.345681035209	1
0	3212	42.422593015319	1
0	3221	42.51599904858	1
0	3237	42.742983050158	1
0	3239	42.868403377167	1
0	3265	43.332368629804	1
0	3267	43.395761631743	1
0	3269	43.420210733947	1
0	3275	43.481094025321	1
0	3279	43.589884468682	1
0	3284	43.826776285766	1
0	3286	43.857336775947	1
0	3288	43.872096379236	1
0	3290	43.874183101097	1
0	3298	43.900218242252	1
0	3304	44.042256587811	1
0	3308	44.255612916558	1
0	3313	44.294181685963	1
0	3325	44.528966062106	1
0	3327	44.577329900855	1
0	3331	44.681114908404	1
0	3334	44.769865101252	1
0	3336	44.809122404071	1
0	3344	44.986936737754	1
0	3346	45.060273505071	1
0	3350	45.159423934361	1
0	3352	45.159429469551	1
0	3363	45.365511593639	1
0	3365	45.402887923021	1
0	3369	45.434845388508	1
0	3373	45.490262471413	1
0	3375	45.650234415597	1
0	3382	45.866810783684	1
0	3386	45.887345560558	1
0	3394	46.001251325625	1
0	3403	46.306569792584	1
0	3405	46.367474253855	1
0	3411	46.483785582198	1
0	3413	46.549835890173	1
0	3415	46.57410773954	1
0	3424	46.729574033321	1
0	3432	47.024022061063	1
0	3434	47.050086074001	1
0	3439	47.181336873298	1
0	3451	47.393611538692	1
0	3453	47.422906684541	1
0	3455	47.460549619693	1
0	3459	47.484541971637	1
0	3466	47.800251525779	1
0	3470	47.873274292303	1
0	3474	47.937093152862	1
0	3476	47.939692927381	1
0	3478	48.064028005176	1
0	3487	48.087280507014	1
0	3489	48.103967971137	1
0	3491	48.159251808202	1
0	3499	48.290349045018	1
0	3501	48.337216692616	1
0	3503	48.441137256274	1
0	3507	48.50342018725	1
0	3509	48.527612151727	1
0	3512	48.560133753525	1
0	3514	48.580769552885	1
0	3518	48.669148118488	1
0	3528	48.833955735804	1
0	3533	49.033359655932	1
0	3539	49.170827651312	1
0	3541	49.183330910304	1
0	3547	49.295676960259	1
0	3549	49.368529344532	1
0	3551	49.400949255881	1
0	3553	49.415113459361	1
0	3555	49.434339603445	1
0	3564	49.560520870794	1
0	3570	49.682420805312	1
0	3574	49.732848798637	1
0	3576	49.795052490545	1
0	3578	49.87839031461	1
0	3583	50.061916654904	1
0	3589	50.082162531274	1
0	3591	50.105086963795	1
0	3593	50.120734540833	1
0	3595	50.138761970791	1
0	3603	50.205716029877	1
0	3605	50.219050092204	1
0	3607	50.262995631253	1
0	3611	50.391038066651	1
0	3620	50.673101661493	1
0	3622	50.676194290649	1
0	3626	50.821149768292	1
0	3635	50.958584069734	1
0	3641	51.096680379301	1
0	3643	51.106397147138	1
0	3649	51.340446343204	1
0	3651	51.364966152468	1
0	3653	51.373677010794	1
0	3660	51.512008657409	1
0	3662	51.592347833676	1
0	3672	51.723910459506	1
0	3674	51.811731967378	1
0	3676	51.816400741742	1
0	3687	52.143250381824	1
0	3689	52.16671596675	1
0	3691	52.201267925121	1
0	3693	52.235083396605	1
0	3695	52.262636190309	1
0	3704	52.375728038228	1
0	3706	52.386296755638	1
0	3708	52.392808042117	1
0	3710	52.394464651559	1
0	3714	52.475578753782	1
0	3722	52.740834605334	1
0	3724	52.741762907772	1
0	3727	52.852603883193	1
0	3733	53.031602843641	1
0	3743	53.185385715089	1
0	3757	53.600982824645	1
0	3763	53.634073812763	1
0	3775	53.755642860099	1
0	3781	53.843930914595	1
0	3783	53.863975134104	1
0	3785	53.870584335173	1
0	3793	53.942408983184	1
0	3799	54.008889758139	1
0	3803	54.095746331286	1
0	3827	54.475148709595	1
0	3839	54.630049877511	1
0	3851	54.839205534773	1
0	3859	54.9324667203	1
0	3861	54.973739706973	1
0	3863	54.998381289194	1
0	3889	55.324273386912	1
0	3891	55.385001315774	1
0	3897	55.411359027058	1
0	3909	55.622447904496	1
0	3931	55.920667972043	1
0	3933	55.988448172249	1
0	3949	56.272112191587	1
0	3961	56.397835891144	1
0	3973	56.558381767451	1
0	3979	56.624966016115	1
0	3987	56.724512380452	1
0	3993	56.847800426755	1
0	4009	57.055176573065	1
0	4017	57.12412002685	1
0	4019	57.158795357229	1
0	4031	57.344938521527	1
0	4043	57.533948691337	1
0	4045	57.555558312996	1
0	4051	57.651759505655	1
0	4063	57.80018375392	1
0	4065	57.801516278403	1
0	4087	58.167482011479	1
0	4093	58.210135592683	1
0	4109	58.408410483143	1
0	4111	58.424443892592	1
0	4119	58.576050785575	1
0	4141	58.976845751062	1
0	4167	59.397031693687	1
0	4177	59.462111427923	1
0	4189	59.602178997619	1
0	4199	59.670973345465	1
0	4201	59.671378977597	1
0	4217	59.773397686392	1
0	4219	59.804797476198	1
0	4228	59.850776607976	1
0	4236	59.903623330806	1
0	4240	59.918345834537	1
0	4242	59.974246601536	1
0	4259	60.14690993951	1
0	4261	60.182269597036	1
0	4263	60.203322925856	1
0	4271	60.254594390119	1
0	4279	60.326198921918	1
0	4282	60.339056945646	1
0	4284	60.364458083481	1
0	4307	60.759221410237	1
0	4309	60.769518246609	1
0	4313	60.821626128717	1
0	4327	61.019815162828	1
0	4331	61.104028793112	1
0	4340	61.46492289361	1
0	4344	61.507022223415	1
0	4355	61.831018520105	1
0	4361	61.98654795614	1
0	4368	62.223586714201	1
0	4370	62.276582872128	1
0	4380	62.425325847562	1
0	4382	62.469840781503	1
0	4386	62.510359069737	1
0	4388	62.561358153122	1
0	4390	62.569816102298	1
0	4393	62.605745492811	1
0	4395	62.658042258177	1
0	4403	62.807305474596	1
0	4405	62.83373252101	1
0	4416	63.094389701242	1
0	4418	63.108602252381	1
0	4420	63.147952493493	1
0	4422	63.153443230748	1
0	4430	63.458929208649	1
0	4435	63.588243994529	1
0	4437	63.589648653653	1
0	4439	63.590797978674	1
0	4443	63.667040347095	1
0	4453	63.814260762894	1
0	4455	63.850584984784	1
0	4457	63.86647830275	1
0	4464	64.080916849201	1
0	4466	64.089203076493	1
0	4470	64.118054347528	1
0	4472	64.127441802256	1
0	4476	64.240579679016	1
0	4480	64.352068421207	1
0	4489	64.518364999274	1
0	4491	64.546517401521	1
0	4495	64.603106855684	1
0	4497	64.657672627161	1
0	4503	64.797159536287	1
0	4505	64.878661369377	1
0	4510	65.055623351698	1
0	4522	65.252629108257	1
0	4526	65.300276966517	1
0	4528	65.430121530077	1
0	4531	65.440274938471	1
0	4533	65.471790941343	1
0	4537	65.501381128668	1
0	4539	65.51547791711	1
0	4543	65.605110837612	1
0	4545	65.610807490859	1
0	4549	65.675524961263	1
0	4553	65.711421093101	1
0	4555	65.7783513803	1
0	4557	65.808748536223	1
0	4559	65.870092445182	1
0	4568	65.930998890714	1
0	4570	66.005357209892	1
0	4578	66.120331348667	1
0	4580	66.178673725771	1
0	4584	66.297623350904	1
0	4591	66.489107576668	1
0	4593	66.522447910506	1
0	4595	66.57926495888	1
0	4603	66.627056757631	1
0	4607	66.802428222133	1
0	4609	66.822413775925	1
0	4614	66.893614582487	1
0	4618	67.04898913269	1
0	4622	67.058022857098	1
0	4624	67.063875646993	1
0	4628	67.171768337843	1
0	4636	67.291169674903	1
0	4638	67.314311772099	1
0	4643	67.465133295262	1
0	4649	67.653045138683	1
0	4653	67.803286418054	1
0	4660	67.917655480113	1
0	4662	67.947687988142	1
0	4664	67.967334176732	1
0	4672	68.014144822055	1
0	4674	68.021386733066	1
0	4678	68.109962797669	1
0	4680	68.110936338603	1
0	4682	68.142794723391	1
0	4687	68.365403122335	1
0	4691	68.411742125089	1
0	4693	68.426067427227	1
0	4695	68.448014243316	1
0	4701	68.599060403438	1
0	4703	68.660652331816	1
0	4716	68.919897192694	1
0	4718	68.924460997644	1
0	4722	69.050050346078	1
0	4726	69.210892130987	1
0	4729	69.278387228352	1
0	4733	69.286395113946	1
0	4737	69.349788326595	1
0	4739	69.422942860508	1
0	4749	69.637252830551	1
0	4751	69.673897959734	1
0	4756	69.740921147392	1
0	4760	69.827087896572	1
0	4764	69.880628331681	1
0	4775	70.201109214642	1
0	4777	70.220238819232	1
0	4783	70.323963328642	1
0	4787	70.388454177759	1
0	4789	70.392054460734	1
0	4793	70.545139302628	1
0	4795	70.60142182281	1
0	4800	70.682711658929	1
0	4802	70.754050087209	1
0	4806	70.771469603246	1
0	4808	70.848294937433	1
0	4816	70.863823495983	1
0	4820	70.978203033895	1
0	4824	71.083031944391	1
0	4826	71.11554903144	1
0	4829	71.19303326939	1
0	4831	71.206828592583	1
0	4836	71.246234349778	1
0	4840	71.296103583065	1
0	4842	71.312004784745	1
0	4862	71.6252877337	1
0	4868	71.642707605358	1
0	4870	71.663426123583	1
0	4872	71.677284805725	1
0	4886	71.911608798734	1
0	4892	71.998102609677	1
0	4898	72.076586311636	1
0	4902	72.086266058867	1
0	4912	72.147314343367	1
0	4924	72.388715986418	1
0	4936	72.60245815546	1
0	4938	72.611119854905	1
0	4944	72.672480275879	1
0	4960	72.833613475791	1
0	4968	72.962409673299	1
0	4980	73.172073300651	1
0	4982	73.222993549338	1
0	4988	73.232805501601	1
0	5000	73.467192465681	1
0	5008	73.522758356997	1
0	5018	73.639884726492	1
0	5022	73.703982081018	1
0	5028	73.824253459401	1
0	5036	73.911050457603	1
0	5042	73.950758552605	1
0	5048	74.076722669667	1
0	5060	74.218101002621	1
0	5062	74.220845212664	1
0	5070	74.321922128974	1
0	5080	74.453374338782	1
0	5084	74.480820690982	1
0	5090	74.62647671214	1
0	5096	74.643976216962	1
0	5098	74.644957660602	1
0	5106	74.804113272881	1
0	5116	74.840971566842	1
0	5134	75.160797064519	1
0	5136	75.18730637466	1
0	5142	75.248580919146	1
0	5146	75.318583482758	1
0	5152	75.407983623026	1
0	5174	75.715291145305	1
0	5186	75.91028883649	1
0	5192	75.991890692886	1
0	5198	76.052996449015	1
0	5200	76.063251638315	1
0	5222	76.366645895555	1
0	5228	76.463846984661	1
0	5236	76.549590494922	1
0	5248	76.748384440406	1
0	5260	76.920291371585	1
0	5266	76.937445234322	1
0	5278	77.176963213261	1
0	5327	77.665313112296	1
0	5343	77.834336607772	1
0	5345	77.843219846037	1
0	5348	77.860585502358	1
0	5350	77.870507655006	1
0	5360	77.969635605582	1
0	5368	78.07004072297	1
0	5376	78.120862668375	1
0	5393	78.419040634108	1
0	5395	78.425517203387	1
0	5412	78.701577648955	1
0	5420	78.756748010214	1
0	5422	78.816056169947	1
0	5424	78.845989008189	1
0	5428	78.976072750935	1
0	5435	79.165145666378	1
0	5441	79.300717517763	1
0	5443	79.304104703287	1
0	5445	79.340775218666	1
0	5458	79.660151405934	1
0	5460	79.672908763314	1
0	5464	79.716816461873	1
0	5466	79.775493342541	1
0	5468	79.819608823614	1
0	5470	79.869329752248	1
0	5472	79.870976080646	1
0	5477	79.946872558071	1
0	5479	79.967357784786	1
0	5491	80.154021831804	1
0	5493	80.205314530987	1
0	5497	80.282160788726	1
0	5504	80.547079614949	1
0	5508	80.661107502641	1
0	5510	80.671600777374	1
0	5514	80.76555097596	1
0	5525	81.056142936326	1
0	5527	81.06651001999	1
0	5533	81.270139438717	1
0	5537	81.27979356662	1
0	5539	81.340336944784	1
0	5541	81.346096236466	1
0	5544	81.385652796506	1
0	5546	81.394703543521	1
0	5548	81.421197037285	1
0	5550	81.448269476359	1
0	5556	81.543581730186	1
0	5566	81.726535945772	1
0	5568	81.729899337864	1
0	5570	81.803791339858	1
0	5572	81.805364252235	1
0	5575	81.877328742004	1
0	5581	81.933329579337	1
0	5585	82.03826379593	1
0	5587	82.045313990766	1
0	5591	82.123969899955	1
0	5593	82.152997241467	1
0	5595	82.156297639973	1
0	5597	82.181292721638	1
0	5599	82.268078908627	1
0	5607	82.2972735158	1
0	5612	82.444715738278	1
0	5614	82.458763309974	1
0	5618	82.505960118751	1
0	5622	82.507171043257	1
0	5624	82.574706630274	1
0	5626	82.586978131006	1
0	5641	82.986734478678	1
0	5645	83.083093748307	1
0	5647	83.111151340925	1
0	5656	83.477107552771	1
0	5660	83.523999685498	1
0	5675	83.988027685093	1
0	5677	83.992701175267	1
0	5679	84.045304254843	1
0	5683	84.082420426923	1
0	5685	84.100208102709	1
0	5688	84.278301570198	1
0	5694	84.380123328079	1
0	5704	84.544641670786	1
0	5706	84.612036015208	1
0	5711	84.714207849949	1
0	5726	85.168990235135	1
0	5728	85.214893027884	1
0	5730	85.221646443572	1
0	5734	85.259152637884	1
0	5740	85.412046524955	1
0	5744	85.573912631597	1
0	5746	85.607936353558	1
0	5748	85.615241519273	1
0	5751	85.642872038566	1
0	5757	85.757938297859	1
0	5765	85.866558628975	1
0	5769	85.914479898423	1
0	5771	85.942724569619	1
0	5773	86.043217900525	1
0	5778	86.152837156626	1
0	5786	86.414401249868	1
0	5794	86.487239007171	1
0	5797	86.679612864238	1
0	5803	86.734793076402	1
0	5807	86.803644465206	1
0	5811	86.884542434719	1
0	5813	86.940375113645	1
0	5815	86.974209725515	1
0	5820	87.147121689283	1
0	5830	87.269734910506	1
0	5834	87.403762506704	1
0	5836	87.457352386238	1
0	5840	87.516618128032	1
0	5843	87.561332118292	1
0	5857	87.908396626346	1
0	5862	88.084805365565	1
0	5866	88.129929245414	1
0	5872	88.388911859964	1
0	5874	88.439584181354	1
0	5876	88.44429410846	1
0	5881	88.578496082578	1
0	5885	88.604974309912	1
0	5887	88.664591499052	1
0	5897	88.70744225947	1
0	5902	88.984356707754	1
0	5909	89.15307853663	1
0	5915	89.182815889421	1
0	5941	89.606117469054	1
0	5943	89.654205291484	1
0	5965	90.001490862074	1
0	5977	90.120939856425	1
0	5989	90.356273333232	1
0	6005	90.583644049901	1
0	6007	90.618820788444	1
0	6009	90.631724638762	1
0	6041	91.114696663559	1
0	6043	91.142343935213	1
0	6049	91.171034844751	1
0	6051	91.196946070339	1
0	6053	91.208140524453	1
0	6059	91.275378814657	1
0	6081	91.576875641876	1
0	6093	91.798997060196	1
0	6095	91.825578715098	1
0	6101	91.869912154698	1
0	6109	91.986955727699	1
0	6111	92.035607641675	1
0	6113	92.041620478588	1
0	6135	92.290183587023	1
0	6141	92.421379895131	1
0	6143	92.433463034757	1
0	6155	92.646933274211	1
0	6167	92.746663166628	1
0	6173	92.778468621147	1
0	6175	92.792718915712	1
0	6177	92.840370497809	1
0	6185	92.887250066973	1
0	6187	92.934137882536	1
0	6193	92.973354011498	1
0	6201	93.111499919483	1
0	6207	93.225479460149	1
0	6209	93.252635039317	1
0	6225	93.411370762286	1
0	6227	93.430227234711	1
0	6235	93.500331785644	1
0	6241	93.559986777332	1
0	6243	93.595118905486	1
0	6245	93.631426789504	1
0	6257	93.848549377639	1
0	6269	94.031302004421	1
0	6279	94.074668489958	1
0	6283	94.101815486601	1
0	6289	94.23590565906	1
0	6297	94.305699413943	1
0	6303	94.386748728661	1
0	6319	94.672491263443	1
0	6327	94.694995512829	1
0	6333	94.795507077686	1
0	6339	94.875029297817	1
0	6355	95.076987748139	1
0	6359	95.150310282007	1
0	6391	95.432001455003	1
0	6393	95.47489263858	1
0	6410	95.613828489275	1
0	6412	95.616321298848	1
0	6427	95.736577033319	1
0	6429	95.752691291202	1
0	6452	96.096785695961	1
0	6454	96.110925007234	1
0	6479	96.629437949537	1
0	6489	96.75250983464	1
0	6491	96.812625299278	1
0	6496	96.936093286883	1
0	6498	96.943443924625	1
0	6502	97.03805409875	1
0	6504	97.072697431499	1
0	6514	97.184143254671	1
0	6516	97.200672555903	1
0	6518	97.260005612729	1
0	6522	97.314045882489	1
0	6525	97.433144027829	1
0	6527	97.447218543372	1
0	6533	97.494752510336	1
0	6537	97.587416370366	1
0	6539	97.597955983357	1
0	6541	97.646213504873	1
0	6554	97.968745113245	1
0	6560	98.194492792321	1
0	6562	98.202011973237	1
0	6577	98.545574312485	1
0	6579	98.54752324178	1
0	6581	98.62668415124	1
0	6592	99.015775160281	1
0	6594	99.047909190568	1
0	6596	99.063982194625	1
0	6600	99.153687496036	1
0	6602	99.18362279633	1
0	6613	99.41069380707	1
0	6615	99.434968350806	1
0	6621	99.487179481247	1
0	6623	99.57390868313	1
0	6625	99.654222360322	1
0	6640	100.026163191412	1
0	6642	100.057860929401	1
0	6646	100.089745034242	1
0	6648	100.150523510654	1
0	6659	100.501429865754	1
0	6661	100.55279842708	1
0	6663	100.555381231523	1
0	6665	100.583938123573	1
0	6676	100.802902795029	1
0	6678	100.873397727167	1
0	6684	100.996706599889	1
0	6686	101.033868175372	1
0	6688	101.066409847088	1
0	6692	101.113096281444	1
0	6699	101.338345568451	1
0	6707	101.412783394591	1
0	6709	101.415471456542	1
0	6713	101.554339183929	1
0	6716	101.652592018201	1
0	6720	101.693164652588	1
0	6724	101.733144179836	1
0	6730	101.991055492915	1
0	6745	102.332547983158	1
0	6749	102.530829241185	1
0	6751	102.549290828476	1
0	6753	102.554282388719	1
0	6766	102.786034994976	1
0	6768	102.815290055095	1
0	6770	102.855328208241	1
0	6774	102.914411730281	1
0	6779	103.134444662325	1
0	6781	103.145496249985	1
0	6785	103.217332833506	1
0	6789	103.260176936385	1
0	6793	103.331640355123	1
0	6795	103.466385237492	1
0	6803	103.515296078554	1
0	6806	103.629400411979	1
0	6812	103.704921593755	1
0	6816	103.802309452903	1
0	6823	104.091821214605	1
0	6833	104.215791022667	1
0	6837	104.439155007777	1
0	6839	104.462086724941	1
0	6844	104.575132444772	1
0	6848	104.616941610666	1
0	6854	104.718836928774	1
0	6856	104.831612972131	1
0	6864	104.911100255738	1
0	6871	105.122490937203	1
0	6873	105.154330238809	1
0	6877	105.232785908501	1
0	6879	105.248834319237	1
0	6883	105.282060381595	1
0	6886	105.476065202583	1
0	6888	105.479135379884	1
0	6894	105.579936733932	1
0	6904	105.70384038467	1
0	6906	105.739456962826	1
0	6908	105.740248497477	1
0	6910	105.801907806329	1
0	6912	105.848537508973	1
0	6914	105.851020829748	1
0	6919	105.926637454527	1
0	6923	106.008296723412	1
0	6929	106.263544372767	1
0	6937	106.308353169605	1
0	6939	106.317728708366	1
0	6942	106.387586808974	1
0	6944	106.439664695461	1
0	6946	106.456344271273	1
0	6948	106.45880563568	1
0	6954	106.514232483021	1
0	6956	106.556180415368	1
0	6962	106.792809441753	1
0	6967	106.890156696118	1
0	6969	106.891011497983	1
0	6971	106.923732536116	1
0	6994	107.270671919994	1
0	6998	107.294212506644	1
0	7004	107.411619520323	1
0	7006	107.423915777012	1
0	7008	107.434387004355	1
0	7016	107.520458475106	1
0	7018	107.554675944268	1
0	7028	107.673508860297	1
0	7036	107.75096053909	1
0	7046	107.86242163939	1
0	7054	107.991210663301	1
0	7072	108.288531497249	1
0	7074	108.337775634887	1
0	7076	108.338046322345	1
0	7086	108.363804808979	1
0	7092	108.467989255461	1
0	7096	108.528660496385	1
0	7102	108.620387676076	1
0	7124	108.97823784866	1
0	7134	109.067090719893	1
0	7142	109.246558031293	1
0	7164	109.575622914319	1
0	7180	109.82188734126	1
0	7182	109.823588903633	1
0	7190	109.933635756681	1
0	7196	110.052867334103	1
0	7204	110.110968199649	1
0	7214	110.278996439657	1
0	7226	110.394543912532	1
0	7232	110.465839560445	1
0	7240	110.570422089724	1
0	7242	110.611063376399	1
0	7244	110.614016557515	1
0	7256	110.770482212585	1
0	7268	111.02247108197	1
0	7270	111.032701260071	1
0	7282	111.110889702381	1
0	7288	111.169235719612	1
0	7310	111.641875239298	1
0	7322	111.715262236	1
0	7328	111.763567538426	1
0	7336	111.881970312061	1
0	7342	112.046305635582	1
0	7344	112.055834083869	1
0	7352	112.117639321583	1
0	7354	112.143485246455	1
0	7366	112.318830058283	1
0	7376	112.371644457355	1
0	7378	112.449105830991	1
0	7386	112.546735033288	1
0	7402	112.765006422217	1
0	7414	112.983008466933	1
0	7438	113.195123912618	1
0	7454	113.291573888794	1
0	7456	113.331368728259	1
0	7458	113.345693598638	1
0	7468	113.397516383448	1
0	7498	113.791662251911	1
0	7502	113.870330563457	1
0	7517	114.075735811843	1
0	7527	114.172940708691	1
0	7529	114.242801065386	1
0	7543	114.29050084048	1
0	7554	114.546052612146	1
0	7556	114.624169491145	1
0	7566	114.702122994028	1
0	7568	114.715010858632	1
0	7573	114.971804121502	1
0	7585	115.085965673854	1
0	7587	115.263101005786	1
0	7591	115.296945119068	1
0	7600	115.642046132004	1
0	7602	115.646438855417	1
0	7613	115.898740601552	1
0	7615	115.911081548703	1
0	7617	115.914751455731	1
0	7619	115.926004450369	1
0	7623	115.945214007984	1
0	7625	115.98326510284	1
0	7629	116.032552979677	1
0	7631	116.060860223262	1
0	7638	116.364813382275	1
0	7642	116.447545974635	1
0	7646	116.483217599902	1
0	7656	116.720041205202	1
0	7658	116.737532231212	1
0	7661	116.824307745506	1
0	7669	117.041731036219	1
0	7673	117.132845617026	1
0	7675	117.191975895583	1
0	7677	117.21916247944	1
0	7690	117.457624013763	1
0	7694	117.544585549847	1
0	7696	117.562048329495	1
0	7698	117.577815534778	1
0	7702	117.686025723226	1
0	7704	117.726917476151	1
0	7707	117.784946434949	1
0	7713	117.88317025339	1
0	7715	117.891127268899	1